# vtk DataFile Version 3.0
femsolver model
ASCII
DATASET UNSTRUCTURED_GRID
POINTS 45 float
0 0 0
0.5125 4.35196023e-17 0
1.025 4.7429104e-17 0
1.5375 3.43201302e-17 0
2.05 -3.69734929e-18 0
2.5625 -7.69581702e-17 0
3.075 -1.73315887e-16 0
3.5875 -2.50644714e-16 0
4.1 -3.08952387e-16 0
0 0.248125 0
0.5125 0.248125 0
1.025 0.248125 0
1.5375 0.248125 0
2.05 0.248125 0
2.5625 0.248125 0
3.075 0.248125 0
3.5875 0.248125 0
4.1 0.248125 0
0 0.49625 0
0.5125 0.49625 0
1.025 0.49625 0
1.5375 0.49625 0
2.05 0.49625 0
2.5625 0.49625 0
3.075 0.49625 0
3.5875 0.49625 0
4.1 0.49625 0
0 0.744375 0
0.5125 0.744375 0
1.025 0.744375 0
1.5375 0.744375 0
2.05 0.744375 0
2.5625 0.744375 0
3.075 0.744375 0
3.5875 0.744375 0
4.1 0.744375 0
0 0.9925 0
0.5125 0.9925 0
1.025 0.9925 0
1.5375 0.9925 0
2.05 0.9925 0
2.5625 0.9925 0
3.075 0.9925 0
3.5875 0.9925 0
4.1 0.9925 0
CELLS 32 160
4 0 1 10 9
4 1 2 11 10
4 2 3 12 11
4 3 4 13 12
4 4 5 14 13
4 5 6 15 14
4 6 7 16 15
4 7 8 17 16
4 9 10 19 18
4 10 11 20 19
4 11 12 21 20
4 12 13 22 21
4 13 14 23 22
4 14 15 24 23
4 15 16 25 24
4 16 17 26 25
4 18 19 28 27
4 19 20 29 28
4 20 21 30 29
4 21 22 31 30
4 22 23 32 31
4 23 24 33 32
4 24 25 34 33
4 25 26 35 34
4 27 28 37 36
4 28 29 38 37
4 29 30 39 38
4 30 31 40 39
4 31 32 41 40
4 32 33 42 41
4 33 34 43 42
4 34 35 44 43
CELL_TYPES 32
9
9
9
9
9
9
9
9
9
9
9
9
9
9
9
9
9
9
9
9
9
9
9
9
9
9
9
9
9
9
9
9
POINT_DATA 45
VECTORS displacement float
0 0 0
2.5e-05 8.70392046e-20 0
5e-05 9.48582081e-20 0
7.5e-05 6.86402604e-20 0
0.0001 -7.39469857e-21 0
0.000125 -1.5391634e-19 0
0.00015 -3.46631773e-19 0
0.000175 -5.01289428e-19 0
0.0002 -6.17904773e-19 0
0 -3.75e-06 0
2.5e-05 -3.75e-06 0
5e-05 -3.75e-06 0
7.5e-05 -3.75e-06 0
0.0001 -3.75e-06 0
0.000125 -3.75e-06 0
0.00015 -3.75e-06 0
0.000175 -3.75e-06 0
0.0002 -3.75e-06 0
0 -7.5e-06 0
2.5e-05 -7.5e-06 0
5e-05 -7.5e-06 0
7.5e-05 -7.5e-06 0
0.0001 -7.5e-06 0
0.000125 -7.5e-06 0
0.00015 -7.5e-06 0
0.000175 -7.5e-06 0
0.0002 -7.5e-06 0
0 -1.125e-05 0
2.5e-05 -1.125e-05 0
5e-05 -1.125e-05 0
7.5e-05 -1.125e-05 0
0.0001 -1.125e-05 0
0.000125 -1.125e-05 0
0.00015 -1.125e-05 0
0.000175 -1.125e-05 0
0.0002 -1.125e-05 0
0 -1.5e-05 0
2.5e-05 -1.5e-05 0
5e-05 -1.5e-05 0
7.5e-05 -1.5e-05 0
0.0001 -1.5e-05 0
0.000125 -1.5e-05 0
0.00015 -1.5e-05 0
0.000175 -1.5e-05 0
0.0002 -1.5e-05 0
