# vtk DataFile Version 3.0
femsolver model
ASCII
DATASET UNSTRUCTURED_GRID
POINTS 4 float
0 0 0
5 0 0
0.951927904 3.00389392 0
5.94362088 2.99610608 0
CELLS 3 9
2 0 2
2 1 3
2 2 3
CELL_TYPES 3
3
3
3
POINT_DATA 4
VECTORS displacement float
0 0 0
0 0 0
0.00475963952 1.94695947e-05 0
0.00471810438 -1.94695947e-05 0
