# vtk DataFile Version 3.0
femsolver model
ASCII
DATASET UNSTRUCTURED_GRID
POINTS 4 float
0 0 0
5 0 0
0 3 0
5 3 0
CELLS 3 9
2 0 2
2 1 3
2 2 3
CELL_TYPES 3
3
3
3
POINT_DATA 4
VECTORS displacement float
0 0 0
0 0 0
0 0 0
0 0 0
VECTORS mode_1 float
0 0 0
0 0 0
0.0326534347 0.000153696748 0
0.0326534347 -0.000153696748 0
VECTORS mode_2 float
0 0 0
0 0 0
0.000204666622 -0.00222091342 0
-0.000204666622 -0.00222091342 0
VECTORS mode_3 float
0 0 0
0 0 0
-0.00357660846 0.0111630695 0
-0.00357660846 -0.0111630695 0
