# vtk DataFile Version 3.0
femsolver model
ASCII
DATASET UNSTRUCTURED_GRID
POINTS 4 float
0 0 0
5 0 0
7.73487185 3.03945676 0
12.6725558 2.96054324 0
CELLS 3 9
2 0 2
2 1 3
2 2 3
CELL_TYPES 3
3
3
3
POINT_DATA 4
VECTORS displacement float
0 0 0
0 0 0
0.00773487185 3.94567632e-05 0
0.00767255577 -3.94567632e-05 0
VECTORS reaction float
-5014.71352 -2630.45088 0
-4985.28648 2630.45088 0
0 0 0
0 0 0
